REMARK  Name = 2519
REMARK  3 active torsions:
REMARK  status: ('A' for Active; 'I' for Inactive)
REMARK    1  A    between atoms: N_3  and  C_12
REMARK    2  A    between atoms: N_4  and  C_13
REMARK    3  A    between atoms: N_5  and  C_14
REMARK                            x       y       z     vdW  Elec       q    Type
REMARK                         _______ _______ _______ _____ _____    ______ ____
ROOT
ATOM      1  O   UNL     1      -0.541  -2.521   0.006  0.00  0.00    -0.265 OA
ATOM      2  O   UNL     1       3.036   0.417   0.014  0.00  0.00    -0.246 OA
ATOM      3  N   UNL     1       0.917   1.301   0.005  0.00  0.00    -0.280 N 
ATOM      4  N   UNL     1      -2.278  -0.085   0.004  0.00  0.00    -0.328 N 
ATOM      5  N   UNL     1       1.272  -1.068   0.010  0.00  0.00    -0.262 N 
ATOM      6  N   UNL     1      -1.433   1.972  -0.011  0.00  0.00    -0.218 NA
ATOM      7  C   UNL     1      -0.920  -0.226  -0.000  0.00  0.00    +0.151 A 
ATOM      8  C   UNL     1      -0.433   1.047  -0.003  0.00  0.00    +0.168 A 
ATOM      9  C   UNL     1      -0.090  -1.379   0.006  0.00  0.00    +0.282 A 
ATOM     10  C   UNL     1       1.815   0.233   0.010  0.00  0.00    +0.333 A 
ATOM     11  C   UNL     1      -2.542   1.259  -0.008  0.00  0.00    +0.099 A 
ATOM     12  C   UNL     1       1.439   2.652   0.011  0.00  0.00    +0.018 C 
ATOM     13  C   UNL     1      -3.253  -1.145   0.032  0.00  0.00    +0.013 C 
ATOM     14  C   UNL     1       2.224  -2.162   0.022  0.00  0.00    +0.020 C 
ENDROOT
TORSDOF 0
